ESCALE ; pCOHP file generated by LOBSTER. Energy is shifted such that the Fermi level lies at 0 eV.
        28          1        601  4.06964e-001  3.04570e+001  1.54320e+001 
Average
No.1:Mg1->Ge10(2.9216428778406414)
No.2:Mg1->Ge11(2.9216428778406414)
No.3:Mg1->Ge12(2.6131506780000344)
No.4:Mg1->Ge13(2.6131506780000309)
No.5:Co2->Co4(2.5304699999875502)
No.6:Co2->Ge9(2.4236641042295837)
No.7:Co2->Ge11(2.420200347331138)
No.8:Co2->Ge12(2.6211667082833672)
No.9:Co3->Co4(2.5304699999875502)
No.10:Co3->Ge10(2.420200347331138)
No.11:Co3->Ge12(2.6211667082833672)
No.12:Co4->Ge9(2.4236641042252427)
No.13:Co4->Ge10(2.4202003473267903)
No.14:Co4->Ge11(2.4202003473267903)
No.15:Co4->Ge12(2.6211667082954144)
No.16:Co5->Co7(2.5304699999875502)
No.17:Co5->Ge11(2.4202003473311389)
No.18:Co5->Ge13(2.6211667082833658)
No.19:Co6->Co7(2.5304699999875502)
No.20:Co6->Ge8(2.4236641042295797)
No.21:Co6->Ge10(2.4202003473311389)
No.22:Co6->Ge13(2.6211667082833658)
No.23:Co7->Ge8(2.4236641042252387)
No.24:Co7->Ge10(2.4202003473267917)
No.25:Co7->Ge11(2.4202003473267917)
No.26:Co7->Ge13(2.6211667082954131)
No.27:Ge10->Ge11(2.9216428778262338)
-15.02504   0.00000  -3.90945   0.00000  -0.68646   0.00000  -0.75959   0.00000  -4.35976   0.00000  -4.36097   0.00000  -1.70376   0.00000  -4.54819   0.00000  -5.87550   0.00000  -3.75015   0.00000  -1.73463   0.00000  -5.80599   0.00000  -3.63599   0.00000  -4.59811   0.00000  -5.83254   0.00000  -5.93188   0.00000  -3.65282   0.00000  -1.72293   0.00000  -5.76222   0.00000  -3.62494   0.00000  -1.71575   0.00000  -4.50071   0.00000  -5.91934   0.00000  -3.75007   0.00000  -4.57360   0.00000  -5.96001   0.00000  -5.80212   0.00000  -3.66316   0.00000  -1.32404
-14.97496   0.00000  -3.90945   0.00000  -0.68646   0.00000  -0.75959   0.00000  -4.35976   0.00000  -4.36097   0.00000  -1.70376   0.00000  -4.54819   0.00000  -5.87550   0.00000  -3.75015   0.00000  -1.73463   0.00000  -5.80599   0.00000  -3.63599   0.00000  -4.59811   0.00000  -5.83254   0.00000  -5.93188   0.00000  -3.65282   0.00000  -1.72293   0.00000  -5.76222   0.00000  -3.62494   0.00000  -1.71575   0.00000  -4.50071   0.00000  -5.91934   0.00000  -3.75007   0.00000  -4.57360   0.00000  -5.96001   0.00000  -5.80212   0.00000  -3.66316   0.00000  -1.32404
-14.92487   0.00000  -3.90945   0.00000  -0.68646   0.00000  -0.75959   0.00000  -4.35976   0.00000  -4.36097   0.00000  -1.70376   0.00000  -4.54819   0.00000  -5.87550   0.00000  -3.75015   0.00000  -1.73463   0.00000  -5.80599   0.00000  -3.63599   0.00000  -4.59811   0.00000  -5.83254   0.00000  -5.93188   0.00000  -3.65282   0.00000  -1.72293   0.00000  -5.76222   0.00000  -3.62494   0.00000  -1.71575   0.00000  -4.50071   0.00000  -5.91934   0.00000  -3.75007   0.00000  -4.57360   0.00000  -5.96001   0.00000  -5.80212   0.00000  -3.66316   0.00000  -1.32404
-14.87479   0.00000  -3.90945   0.00000  -0.68646   0.00000  -0.75959   0.00000  -4.35976   0.00000  -4.36097   0.00000  -1.70376   0.00000  -4.54819   0.00000  -5.87550   0.00000  -3.75015   0.00000  -1.73463   0.00000  -5.80599   0.00000  -3.63599   0.00000  -4.59811   0.00000  -5.83254   0.00000  -5.93188   0.00000  -3.65282   0.00000  -1.72293   0.00000  -5.76222   0.00000  -3.62494   0.00000  -1.71575   0.00000  -4.50071   0.00000  -5.91934   0.00000  -3.75007   0.00000  -4.57360   0.00000  -5.96001   0.00000  -5.80212   0.00000  -3.66316   0.00000  -1.32404
-14.82471   0.00000  -3.90945   0.00000  -0.68646   0.00000  -0.75959   0.00000  -4.35976   0.00000  -4.36097   0.00000  -1.70376   0.00000  -4.54819   0.00000  -5.87550   0.00000  -3.75015   0.00000  -1.73463   0.00000  -5.80599   0.00000  -3.63599   0.00000  -4.59811   0.00000  -5.83254   0.00000  -5.93188   0.00000  -3.65282   0.00000  -1.72293   0.00000  -5.76222   0.00000  -3.62494   0.00000  -1.71575   0.00000  -4.50071   0.00000  -5.91934   0.00000  -3.75007   0.00000  -4.57360   0.00000  -5.96001   0.00000  -5.80212   0.00000  -3.66316   0.00000  -1.32404
-14.77462   0.00000  -3.90945   0.00000  -0.68646   0.00000  -0.75959   0.00000  -4.35976   0.00000  -4.36097   0.00000  -1.70376   0.00000  -4.54819   0.00000  -5.87550   0.00000  -3.75015   0.00000  -1.73463   0.00000  -5.80599   0.00000  -3.63599   0.00000  -4.59811   0.00000  -5.83254   0.00000  -5.93188   0.00000  -3.65282   0.00000  -1.72293   0.00000  -5.76222   0.00000  -3.62494   0.00000  -1.71575   0.00000  -4.50071   0.00000  -5.91934   0.00000  -3.75007   0.00000  -4.57360   0.00000  -5.96001   0.00000  -5.80212   0.00000  -3.66316   0.00000  -1.32404
-14.72454   0.00000  -3.90945   0.00000  -0.68646   0.00000  -0.75959   0.00000  -4.35976   0.00000  -4.36097   0.00000  -1.70376   0.00000  -4.54819   0.00000  -5.87550   0.00000  -3.75015   0.00000  -1.73463   0.00000  -5.80599   0.00000  -3.63599   0.00000  -4.59811   0.00000  -5.83254   0.00000  -5.93188   0.00000  -3.65282   0.00000  -1.72293   0.00000  -5.76222   0.00000  -3.62494   0.00000  -1.71575   0.00000  -4.50071   0.00000  -5.91934   0.00000  -3.75007   0.00000  -4.57360   0.00000  -5.96001   0.00000  -5.80212   0.00000  -3.66316   0.00000  -1.32404
-14.67446   0.00000  -3.90945   0.00000  -0.68646   0.00000  -0.75959   0.00000  -4.35976   0.00000  -4.36097   0.00000  -1.70376   0.00000  -4.54819   0.00000  -5.87550   0.00000  -3.75015   0.00000  -1.73463   0.00000  -5.80599   0.00000  -3.63599   0.00000  -4.59811   0.00000  -5.83254   0.00000  -5.93188   0.00000  -3.65282   0.00000  -1.72293   0.00000  -5.76222   0.00000  -3.62494   0.00000  -1.71575   0.00000  -4.50071   0.00000  -5.91934   0.00000  -3.75007   0.00000  -4.57360   0.00000  -5.96001   0.00000  -5.80212   0.00000  -3.66316   0.00000  -1.32404
-14.62437   0.00000  -3.90945   0.00000  -0.68646   0.00000  -0.75959   0.00000  -4.35976   0.00000  -4.36097   0.00000  -1.70376   0.00000  -4.54819   0.00000  -5.87550   0.00000  -3.75015   0.00000  -1.73463   0.00000  -5.80599   0.00000  -3.63599   0.00000  -4.59811   0.00000  -5.83254   0.00000  -5.93188   0.00000  -3.65282   0.00000  -1.72293   0.00000  -5.76222   0.00000  -3.62494   0.00000  -1.71575   0.00000  -4.50071   0.00000  -5.91934   0.00000  -3.75007   0.00000  -4.57360   0.00000  -5.96001   0.00000  -5.80212   0.00000  -3.66316   0.00000  -1.32404
-14.57429   0.00000  -3.90945   0.00000  -0.68646   0.00000  -0.75959   0.00000  -4.35976   0.00000  -4.36097   0.00000  -1.70376   0.00000  -4.54819   0.00000  -5.87550   0.00000  -3.75015   0.00000  -1.73463   0.00000  -5.80599   0.00000  -3.63599   0.00000  -4.59811   0.00000  -5.83254   0.00000  -5.93188   0.00000  -3.65282   0.00000  -1.72293   0.00000  -5.76222   0.00000  -3.62494   0.00000  -1.71575   0.00000  -4.50071   0.00000  -5.91934   0.00000  -3.75007   0.00000  -4.57360   0.00000  -5.96001   0.00000  -5.80212   0.00000  -3.66316   0.00000  -1.32404
-14.52421   0.00000  -3.90945   0.00000  -0.68646   0.00000  -0.75959   0.00000  -4.35976   0.00000  -4.36097   0.00000  -1.70376   0.00000  -4.54819   0.00000  -5.87550   0.00000  -3.75015   0.00000  -1.73463   0.00000  -5.80599   0.00000  -3.63599   0.00000  -4.59811   0.00000  -5.83254   0.00000  -5.93188   0.00000  -3.65282   0.00000  -1.72293   0.00000  -5.76222   0.00000  -3.62494   0.00000  -1.71575   0.00000  -4.50071   0.00000  -5.91934   0.00000  -3.75007   0.00000  -4.57360   0.00000  -5.96001   0.00000  -5.80212   0.00000  -3.66316   0.00000  -1.32404
-14.47412   0.00000  -3.90945   0.00000  -0.68646   0.00000  -0.75959   0.00000  -4.35976   0.00000  -4.36097   0.00000  -1.70376   0.00000  -4.54819   0.00000  -5.87550   0.00000  -3.75015   0.00000  -1.73463   0.00000  -5.80599   0.00000  -3.63599   0.00000  -4.59811   0.00000  -5.83254   0.00000  -5.93188   0.00000  -3.65282   0.00000  -1.72293   0.00000  -5.76222   0.00000  -3.62494   0.00000  -1.71575   0.00000  -4.50071   0.00000  -5.91934   0.00000  -3.75007   0.00000  -4.57360   0.00000  -5.96001   0.00000  -5.80212   0.00000  -3.66316   0.00000  -1.32404
-14.42404   0.00000  -3.90945   0.00000  -0.68646   0.00000  -0.75959   0.00000  -4.35976   0.00000  -4.36097   0.00000  -1.70376   0.00000  -4.54819   0.00000  -5.87550   0.00000  -3.75015   0.00000  -1.73463   0.00000  -5.80599   0.00000  -3.63599   0.00000  -4.59811   0.00000  -5.83254   0.00000  -5.93188   0.00000  -3.65282   0.00000  -1.72293   0.00000  -5.76222   0.00000  -3.62494   0.00000  -1.71575   0.00000  -4.50071   0.00000  -5.91934   0.00000  -3.75007   0.00000  -4.57360   0.00000  -5.96001   0.00000  -5.80212   0.00000  -3.66316   0.00000  -1.32404
-14.37396   0.00000  -3.90945   0.00000  -0.68646   0.00000  -0.75959   0.00000  -4.35976   0.00000  -4.36097   0.00000  -1.70376   0.00000  -4.54819   0.00000  -5.87550   0.00000  -3.75015   0.00000  -1.73463   0.00000  -5.80599   0.00000  -3.63599   0.00000  -4.59811   0.00000  -5.83254   0.00000  -5.93188   0.00000  -3.65282   0.00000  -1.72293   0.00000  -5.76222   0.00000  -3.62494   0.00000  -1.71575   0.00000  -4.50071   0.00000  -5.91934   0.00000  -3.75007   0.00000  -4.57360   0.00000  -5.96001   0.00000  -5.80212   0.00000  -3.66316   0.00000  -1.32404
-14.32387   0.00000  -3.90945   0.00000  -0.68646   0.00000  -0.75959   0.00000  -4.35976   0.00000  -4.36097   0.00000  -1.70376   0.00000  -4.54819   0.00000  -5.87550   0.00000  -3.75015   0.00000  -1.73463   0.00000  -5.80599   0.00000  -3.63599   0.00000  -4.59811   0.00000  -5.83254   0.00000  -5.93188   0.00000  -3.65282   0.00000  -1.72293   0.00000  -5.76222   0.00000  -3.62494   0.00000  -1.71575   0.00000  -4.50071   0.00000  -5.91934   0.00000  -3.75007   0.00000  -4.57360   0.00000  -5.96001   0.00000  -5.80212   0.00000  -3.66316   0.00000  -1.32404
-14.27379   0.00000  -3.90945   0.00000  -0.68646   0.00000  -0.75959   0.00000  -4.35976   0.00000  -4.36097   0.00000  -1.70376   0.00000  -4.54819   0.00000  -5.87550   0.00000  -3.75015   0.00000  -1.73463   0.00000  -5.80599   0.00000  -3.63599   0.00000  -4.59811   0.00000  -5.83254   0.00000  -5.93188   0.00000  -3.65282   0.00000  -1.72293   0.00000  -5.76222   0.00000  -3.62494   0.00000  -1.71575   0.00000  -4.50071   0.00000  -5.91934   0.00000  -3.75007   0.00000  -4.57360   0.00000  -5.96001   0.00000  -5.80212   0.00000  -3.66316   0.00000  -1.32404
-14.22371   0.00000  -3.90945   0.00000  -0.68646   0.00000  -0.75959   0.00000  -4.35976   0.00000  -4.36097   0.00000  -1.70376   0.00000  -4.54819   0.00000  -5.87550   0.00000  -3.75015   0.00000  -1.73463   0.00000  -5.80599   0.00000  -3.63599   0.00000  -4.59811   0.00000  -5.83254   0.00000  -5.93188   0.00000  -3.65282   0.00000  -1.72293   0.00000  -5.76222   0.00000  -3.62494   0.00000  -1.71575   0.00000  -4.50071   0.00000  -5.91934   0.00000  -3.75007   0.00000  -4.57360   0.00000  -5.96001   0.00000  -5.80212   0.00000  -3.66316   0.00000  -1.32404
-14.17362   0.00000  -3.90945   0.00000  -0.68646   0.00000  -0.75959   0.00000  -4.35976   0.00000  -4.36097   0.00000  -1.70376   0.00000  -4.54819   0.00000  -5.87550   0.00000  -3.75015   0.00000  -1.73463   0.00000  -5.80599   0.00000  -3.63599   0.00000  -4.59811   0.00000  -5.83254   0.00000  -5.93188   0.00000  -3.65282   0.00000  -1.72293   0.00000  -5.76222   0.00000  -3.62494   0.00000  -1.71575   0.00000  -4.50071   0.00000  -5.91934   0.00000  -3.75007   0.00000  -4.57360   0.00000  -5.96001   0.00000  -5.80212   0.00000  -3.66316   0.00000  -1.32404
-14.12354   0.00000  -3.90945   0.00000  -0.68646   0.00000  -0.75959   0.00000  -4.35976   0.00000  -4.36097   0.00000  -1.70376   0.00000  -4.54819   0.00000  -5.87550   0.00000  -3.75015   0.00000  -1.73463   0.00000  -5.80599   0.00000  -3.63599   0.00000  -4.59811   0.00000  -5.83254   0.00000  -5.93188   0.00000  -3.65282   0.00000  -1.72293   0.00000  -5.76222   0.00000  -3.62494   0.00000  -1.71575   0.00000  -4.50071   0.00000  -5.91934   0.00000  -3.75007   0.00000  -4.57360   0.00000  -5.96001   0.00000  -5.80212   0.00000  -3.66316   0.00000  -1.32404
-14.07346  -0.00000  -3.90945   0.00000  -0.68646   0.00000  -0.75959   0.00000  -4.35976   0.00000  -4.36097   0.00000  -1.70376   0.00000  -4.54819   0.00000  -5.87550   0.00000  -3.75015   0.00000  -1.73463   0.00000  -5.80599  -0.00000  -3.63599   0.00000  -4.59811   0.00000  -5.83254   0.00000  -5.93188   0.00000  -3.65282   0.00000  -1.72293   0.00000  -5.76222   0.00000  -3.62494   0.00000  -1.71575   0.00000  -4.50071   0.00000  -5.91934   0.00000  -3.75007   0.00000  -4.57360   0.00000  -5.96001   0.00000  -5.80212   0.00000  -3.66316   0.00000  -1.32404
-14.02337   0.00000  -3.90945  -0.00000  -0.68646   0.00000  -0.75959   0.00000  -4.35976   0.00000  -4.36097  -0.00000  -1.70376   0.00000  -4.54819   0.00000  -5.87550   0.00000  -3.75015  -0.00000  -1.73463   0.00000  -5.80599   0.00000  -3.63599  -0.00000  -4.59811   0.00000  -5.83254  -0.00000  -5.93188   0.00000  -3.65282   0.00000  -1.72293   0.00000  -5.76222   0.00000  -3.62494   0.00000  -1.71575   0.00000  -4.50071   0.00000  -5.91934  -0.00000  -3.75007  -0.00000  -4.57360  -0.00000  -5.96001  -0.00000  -5.80212   0.00000  -3.66316   0.00000  -1.32404
-13.97329   0.00000  -3.90945  -0.00000  -0.68646   0.00000  -0.75959   0.00000  -4.35976  -0.00000  -4.36097  -0.00000  -1.70376   0.00000  -4.54819   0.00000  -5.87550   0.00000  -3.75015   0.00000  -1.73463   0.00000  -5.80599   0.00000  -3.63599   0.00000  -4.59811  -0.00000  -5.83254   0.00000  -5.93188   0.00000  -3.65282   0.00000  -1.72293  -0.00000  -5.76222   0.00000  -3.62494   0.00000  -1.71575   0.00000  -4.50071  -0.00000  -5.91934  -0.00000  -3.75007   0.00000  -4.57360   0.00000  -5.96001  -0.00000  -5.80212   0.00000  -3.66316  -0.00000  -1.32404
-13.92321   0.00000  -3.90945   0.00000  -0.68646   0.00000  -0.75959  -0.00000  -4.35976  -0.00000  -4.36097   0.00000  -1.70376   0.00000  -4.54819   0.00000  -5.87550  -0.00000  -3.75015   0.00000  -1.73463   0.00000  -5.80599  -0.00000  -3.63599   0.00000  -4.59811   0.00000  -5.83254   0.00000  -5.93188  -0.00000  -3.65282   0.00000  -1.72293   0.00000  -5.76222  -0.00000  -3.62494   0.00000  -1.71575   0.00000  -4.50071   0.00000  -5.91934  -0.00000  -3.75007   0.00000  -4.57360   0.00000  -5.96001   0.00000  -5.80212  -0.00000  -3.66316  -0.00000  -1.32404
-13.87312   0.00000  -3.90945   0.00000  -0.68646   0.00000  -0.75959  -0.00000  -4.35976  -0.00000  -4.36097   0.00000  -1.70376   0.00000  -4.54819   0.00000  -5.87550  -0.00000  -3.75015   0.00000  -1.73463   0.00000  -5.80599  -0.00000  -3.63599   0.00000  -4.59811   0.00000  -5.83254   0.00000  -5.93188  -0.00000  -3.65282   0.00000  -1.72293   0.00000  -5.76222  -0.00000  -3.62494   0.00000  -1.71575   0.00000  -4.50071   0.00000  -5.91934  -0.00000  -3.75007   0.00000  -4.57360   0.00000  -5.96001   0.00000  -5.80212  -0.00000  -3.66316  -0.00000  -1.32404
-13.82304   0.00000  -3.90945   0.00000  -0.68646   0.00000  -0.75959  -0.00000  -4.35976  -0.00000  -4.36097   0.00000  -1.70376   0.00000  -4.54819   0.00000  -5.87550  -0.00000  -3.75015   0.00000  -1.73463   0.00000  -5.80599  -0.00000  -3.63599   0.00000  -4.59811   0.00000  -5.83254   0.00000  -5.93188  -0.00000  -3.65282   0.00000  -1.72293   0.00000  -5.76222  -0.00000  -3.62494   0.00000  -1.71575   0.00000  -4.50071   0.00000  -5.91934  -0.00000  -3.75007   0.00000  -4.57360   0.00000  -5.96001   0.00000  -5.80212  -0.00000  -3.66316  -0.00000  -1.32404
-13.77295   0.00000  -3.90945   0.00000  -0.68646   0.00000  -0.75959  -0.00000  -4.35976  -0.00000  -4.36097   0.00000  -1.70376   0.00000  -4.54819   0.00000  -5.87550  -0.00000  -3.75015   0.00000  -1.73463   0.00000  -5.80599  -0.00000  -3.63599   0.00000  -4.59811   0.00000  -5.83254   0.00000  -5.93188  -0.00000  -3.65282   0.00000  -1.72293   0.00000  -5.76222  -0.00000  -3.62494   0.00000  -1.71575   0.00000  -4.50071   0.00000  -5.91934  -0.00000  -3.75007   0.00000  -4.57360   0.00000  -5.96001   0.00000  -5.80212  -0.00000  -3.66316  -0.00000  -1.32404
-13.72287   0.00000  -3.90945   0.00000  -0.68646   0.00000  -0.75959  -0.00000  -4.35976  -0.00000  -4.36097   0.00000  -1.70376   0.00000  -4.54819   0.00000  -5.87550  -0.00000  -3.75015   0.00000  -1.73463   0.00000  -5.80599  -0.00000  -3.63599   0.00000  -4.59811   0.00000  -5.83254   0.00000  -5.93188  -0.00000  -3.65282   0.00000  -1.72293   0.00000  -5.76222  -0.00000  -3.62494   0.00000  -1.71575   0.00000  -4.50071   0.00000  -5.91934  -0.00000  -3.75007   0.00000  -4.57360   0.00000  -5.96001   0.00000  -5.80212  -0.00000  -3.66316  -0.00000  -1.32404
-13.67279   0.00000  -3.90945   0.00000  -0.68646   0.00000  -0.75959  -0.00000  -4.35976  -0.00000  -4.36097   0.00000  -1.70376   0.00000  -4.54819   0.00000  -5.87550  -0.00000  -3.75015   0.00000  -1.73463   0.00000  -5.80599  -0.00000  -3.63599   0.00000  -4.59811   0.00000  -5.83254   0.00000  -5.93188  -0.00000  -3.65282   0.00000  -1.72293   0.00000  -5.76222  -0.00000  -3.62494   0.00000  -1.71575   0.00000  -4.50071   0.00000  -5.91934  -0.00000  -3.75007   0.00000  -4.57360   0.00000  -5.96001   0.00000  -5.80212  -0.00000  -3.66316  -0.00000  -1.32404
-13.62270   0.00000  -3.90945   0.00000  -0.68646   0.00000  -0.75959  -0.00000  -4.35976  -0.00000  -4.36097   0.00000  -1.70376   0.00000  -4.54819   0.00000  -5.87550  -0.00000  -3.75015   0.00000  -1.73463   0.00000  -5.80599  -0.00000  -3.63599   0.00000  -4.59811   0.00000  -5.83254   0.00000  -5.93188  -0.00000  -3.65282   0.00000  -1.72293   0.00000  -5.76222  -0.00000  -3.62494   0.00000  -1.71575   0.00000  -4.50071   0.00000  -5.91934  -0.00000  -3.75007   0.00000  -4.57360   0.00000  -5.96001   0.00000  -5.80212  -0.00000  -3.66316  -0.00000  -1.32404
-13.57262   0.00000  -3.90945   0.00000  -0.68646   0.00000  -0.75959  -0.00000  -4.35976  -0.00000  -4.36097   0.00000  -1.70376   0.00000  -4.54819   0.00000  -5.87550  -0.00000  -3.75015   0.00000  -1.73463   0.00000  -5.80599  -0.00000  -3.63599   0.00000  -4.59811   0.00000  -5.83254   0.00000  -5.93188  -0.00000  -3.65282   0.00000  -1.72293   0.00000  -5.76222  -0.00000  -3.62494   0.00000  -1.71575   0.00000  -4.50071   0.00000  -5.91934  -0.00000  -3.75007   0.00000  -4.57360   0.00000  -5.96001   0.00000  -5.80212  -0.00000  -3.66316  -0.00000  -1.32404
-13.52254   0.00000  -3.90945   0.00000  -0.68646   0.00000  -0.75959  -0.00000  -4.35976  -0.00000  -4.36097   0.00000  -1.70376   0.00000  -4.54819   0.00000  -5.87550  -0.00000  -3.75015   0.00000  -1.73463   0.00000  -5.80599  -0.00000  -3.63599   0.00000  -4.59811   0.00000  -5.83254   0.00000  -5.93188  -0.00000  -3.65282   0.00000  -1.72293   0.00000  -5.76222  -0.00000  -3.62494   0.00000  -1.71575   0.00000  -4.50071   0.00000  -5.91934  -0.00000  -3.75007   0.00000  -4.57360   0.00000  -5.96001   0.00000  -5.80212  -0.00000  -3.66316  -0.00000  -1.32404
-13.47245   0.00000  -3.90945   0.00000  -0.68646   0.00000  -0.75959  -0.00000  -4.35976  -0.00000  -4.36098   0.00000  -1.70376   0.00000  -4.54819   0.00000  -5.87550  -0.00000  -3.75015   0.00000  -1.73463   0.00000  -5.80599  -0.00000  -3.63599   0.00000  -4.59811   0.00000  -5.83254   0.00000  -5.93188  -0.00000  -3.65282   0.00000  -1.72293   0.00000  -5.76222  -0.00000  -3.62494   0.00000  -1.71575   0.00000  -4.50071   0.00000  -5.91934  -0.00000  -3.75007   0.00000  -4.57360   0.00000  -5.96001   0.00000  -5.80212  -0.00000  -3.66316  -0.00000  -1.32404
-13.42237   0.00000  -3.90945   0.00000  -0.68646   0.00000  -0.75959  -0.00001  -4.35976  -0.00001  -4.36098   0.00002  -1.70376   0.00001  -4.54819   0.00001  -5.87550  -0.00000  -3.75015   0.00002  -1.73463   0.00001  -5.80599  -0.00000  -3.63599   0.00001  -4.59811   0.00001  -5.83254   0.00001  -5.93188  -0.00000  -3.65282   0.00002  -1.72293   0.00001  -5.76222  -0.00000  -3.62494   0.00002  -1.71575   0.00001  -4.50071   0.00001  -5.91934  -0.00000  -3.75007   0.00001  -4.57360   0.00001  -5.96001   0.00001  -5.80212  -0.00000  -3.66316  -0.00000  -1.32404
-13.37229   0.00002  -3.90945   0.00000  -0.68646   0.00000  -0.75959  -0.00004  -4.35976  -0.00004  -4.36098   0.00006  -1.70376   0.00005  -4.54819   0.00003  -5.87550  -0.00000  -3.75015   0.00006  -1.73462   0.00002  -5.80599  -0.00000  -3.63599   0.00003  -4.59811   0.00002  -5.83254   0.00002  -5.93187  -0.00001  -3.65282   0.00006  -1.72292   0.00002  -5.76222  -0.00000  -3.62494   0.00006  -1.71574   0.00005  -4.50070   0.00003  -5.91934  -0.00000  -3.75007   0.00003  -4.57360   0.00002  -5.96001   0.00002  -5.80212  -0.00001  -3.66316  -0.00001  -1.32404
-13.32220   0.00006  -3.90945   0.00001  -0.68646   0.00001  -0.75959  -0.00014  -4.35977  -0.00014  -4.36098   0.00021  -1.70374   0.00017  -4.54818   0.00008  -5.87550  -0.00001  -3.75015   0.00022  -1.73461   0.00008  -5.80598  -0.00000  -3.63599   0.00012  -4.59810   0.00007  -5.83253   0.00007  -5.93187  -0.00003  -3.65282   0.00021  -1.72291   0.00008  -5.76222  -0.00001  -3.62494   0.00022  -1.71573   0.00017  -4.50070   0.00008  -5.91933  -0.00000  -3.75007   0.00011  -4.57360   0.00007  -5.96001   0.00007  -5.80212  -0.00003  -3.66316  -0.00002  -1.32404
-13.27212   0.00019  -3.90944   0.00002  -0.68646   0.00002  -0.75959  -0.00043  -4.35979  -0.00043  -4.36101   0.00066  -1.70371   0.00050  -4.54815   0.00025  -5.87549  -0.00002  -3.75015   0.00066  -1.73458   0.00025  -5.80597  -0.00001  -3.63599   0.00036  -4.59809   0.00020  -5.83252   0.00022  -5.93186  -0.00008  -3.65282   0.00066  -1.72288   0.00024  -5.76220  -0.00002  -3.62494   0.00066  -1.71570   0.00050  -4.50067   0.00026  -5.91932  -0.00001  -3.75007   0.00035  -4.57358   0.00022  -5.95999   0.00021  -5.80211  -0.00008  -3.66316  -0.00006  -1.32405
-13.22204   0.00053  -3.90941   0.00004  -0.68645   0.00005  -0.75959  -0.00119  -4.35985  -0.00119  -4.36107   0.00183  -1.70362   0.00136  -4.54809   0.00069  -5.87545  -0.00003  -3.75015   0.00184  -1.73449   0.00067  -5.80594  -0.00000  -3.63599   0.00100  -4.59804   0.00056  -5.83250   0.00060  -5.93183  -0.00020  -3.65283   0.00183  -1.72279   0.00066  -5.76217  -0.00003  -3.62495   0.00184  -1.71561   0.00137  -4.50060   0.00070  -5.91928   0.00000  -3.75007   0.00096  -4.57353   0.00060  -5.95996   0.00057  -5.80208  -0.00020  -3.66317  -0.00016  -1.32405
-13.17195   0.00132  -3.90935   0.00010  -0.68645   0.00012  -0.75958  -0.00300  -4.36000  -0.00300  -4.36122   0.00459  -1.70339   0.00334  -4.54792   0.00172  -5.87536  -0.00003  -3.75015   0.00462  -1.73426   0.00166  -5.80586   0.00004  -3.63599   0.00253  -4.59791   0.00141  -5.83242   0.00151  -5.93175  -0.00040  -3.65285   0.00459  -1.72256   0.00164  -5.76209  -0.00003  -3.62495   0.00462  -1.71538   0.00337  -4.50043   0.00173  -5.91920   0.00005  -3.75006   0.00244  -4.57341   0.00150  -5.95989   0.00142  -5.80201  -0.00040  -3.66319  -0.00039  -1.32407
-13.12187   0.00303  -3.90919   0.00022  -0.68644   0.00026  -0.75957  -0.00685  -4.36034  -0.00684  -4.36156   0.01049  -1.70287   0.00747  -4.54754   0.00385  -5.87517   0.00004  -3.75015   0.01056  -1.73373   0.00371  -5.80567   0.00019  -3.63598   0.00580  -4.59762   0.00320  -5.83226   0.00345  -5.93158  -0.00069  -3.65289   0.01049  -1.72203   0.00367  -5.76190   0.00003  -3.62495   0.01055  -1.71485   0.00753  -4.50006   0.00387  -5.91900   0.00021  -3.75005   0.00559  -4.57313   0.00341  -5.95972   0.00323  -5.80184  -0.00069  -3.66323  -0.00087  -1.32412
-13.07179   0.00633  -3.90888   0.00042  -0.68642   0.00050  -0.75954  -0.01418  -4.36105  -0.01416  -4.36227   0.02179  -1.70177   0.01518  -4.54678   0.00787  -5.87478   0.00032  -3.75013   0.02193  -1.73263   0.00758  -5.80529   0.00062  -3.63594   0.01213  -4.59701   0.00662  -5.83193   0.00713  -5.93122  -0.00097  -3.65294   0.02179  -1.72094   0.00749  -5.76153   0.00031  -3.62493   0.02191  -1.71375   0.01529  -4.49929   0.00791  -5.91861   0.00066  -3.75002   0.01170  -4.57254   0.00705  -5.95937   0.00669  -5.80151  -0.00098  -3.66328  -0.00179  -1.32421
-13.02170   0.01204  -3.90827   0.00074  -0.68638   0.00088  -0.75950  -0.02667  -4.36239  -0.02663  -4.36360   0.04122  -1.69971   0.02813  -4.54538   0.01464  -5.87404   0.00108  -3.75008   0.04150  -1.73055   0.01409  -5.80458   0.00161  -3.63586   0.02311  -4.59585   0.01249  -5.83131   0.01343  -5.93055  -0.00097  -3.65298   0.04123  -1.71888   0.01392  -5.76083   0.00106  -3.62488   0.04146  -1.71167   0.02833  -4.49787   0.01470  -5.91787   0.00167  -3.74994   0.02235  -4.57142   0.01330  -5.95870   0.01261  -5.80088  -0.00097  -3.66332  -0.00337  -1.32438
-12.97162   0.02093  -3.90723   0.00118  -0.68632   0.00142  -0.75943  -0.04558  -4.36467  -0.04550  -4.36588   0.07116  -1.69615   0.04768  -4.54299   0.02486  -5.87280   0.00273  -3.74994   0.07164  -1.72696   0.02392  -5.80339   0.00353  -3.63569   0.04026  -4.59384   0.02153  -5.83023   0.02307  -5.92940  -0.00018  -3.65299   0.07118  -1.71531   0.02365  -5.75965   0.00270  -3.62474   0.07157  -1.70809   0.04799  -4.49547   0.02495  -5.91662   0.00363  -3.74976   0.03906  -4.56947   0.02287  -5.95755   0.02171  -5.79979  -0.00019  -3.66333  -0.00577  -1.32466
-12.92154   0.03336  -3.90556   0.00175  -0.68623   0.00210  -0.75932  -0.07090  -4.36822  -0.07078  -4.36942   0.11240  -1.69052   0.07420  -4.53927   0.03861  -5.87087   0.00574  -3.74966   0.11315  -1.72130   0.03719  -5.80152   0.00681  -3.63535   0.06429  -4.59062   0.03396  -5.82853   0.03622  -5.92758   0.00202  -3.65289   0.11243  -1.70968   0.03678  -5.75781   0.00569  -3.62446   0.11305  -1.70243   0.07460  -4.49173   0.03872  -5.91468   0.00696  -3.74941   0.06261  -4.56633   0.03596  -5.95575   0.03420  -5.79808   0.00202  -3.66323  -0.00906  -1.32512
-12.87145   0.04898  -3.90310   0.00240  -0.68611   0.00288  -0.75918  -0.10075  -4.37327  -0.10057  -4.37446   0.16315  -1.68234   0.10661  -4.53393   0.05508  -5.86811   0.01058  -3.74913   0.16423  -1.71307   0.05314  -5.79886   0.01179  -3.63476   0.09462  -4.58588   0.04923  -5.82606   0.05220  -5.92497   0.00627  -3.65258   0.16319  -1.70151   0.05260  -5.75517   0.01050  -3.62393   0.16409  -1.69421   0.10704  -4.48637   0.05521  -5.91192   0.01199  -3.74881   0.09253  -4.56170   0.05190  -5.95315   0.04949  -5.79560   0.00627  -3.66292  -0.01309  -1.32577
-12.82137   0.06678  -3.89976   0.00313  -0.68596   0.00373  -0.75899  -0.13161  -4.37986  -0.13140  -4.38104   0.21918  -1.67137   0.14268  -4.52679   0.07269  -5.86447   0.01756  -3.74825   0.22064  -1.70202   0.07030  -5.79534   0.01868  -3.63382   0.12941  -4.57940   0.06599  -5.82276   0.06952  -5.92149   0.01300  -3.65193   0.21923  -1.69053   0.06964  -5.75168   0.01741  -3.62306   0.22045  -1.68317   0.14304  -4.47921   0.07284  -5.90827   0.01893  -3.74786   0.12710  -4.55533   0.06925  -5.94969   0.06623  -5.79228   0.01300  -3.66227  -0.01753  -1.32665
-12.77129   0.08552  -3.89547   0.00398  -0.68576   0.00469  -0.75876  -0.15980  -4.38787  -0.15958  -4.38903   0.27545  -1.65757   0.18010  -4.51777   0.08981  -5.85997   0.02687  -3.74690   0.27730  -1.68813   0.08710  -5.79098   0.02760  -3.63244   0.16642  -4.57106   0.08272  -5.81862   0.08658  -5.91715   0.02238  -3.65081   0.27551  -1.67673   0.08637  -5.74736   0.02663  -3.62172   0.27705  -1.66929   0.18029  -4.47018   0.08997  -5.90376   0.02792  -3.74646   0.16415  -4.54711   0.08639  -5.94536   0.08289  -5.78813   0.02239  -3.66115  -0.02202  -1.32776
-12.72120   0.10438  -3.89025   0.00505  -0.68550   0.00588  -0.75846  -0.18328  -4.39704  -0.18308  -4.39820   0.32832  -1.64113   0.21771  -4.50686   0.10559  -5.85468   0.03862  -3.74497   0.33054  -1.67158   0.10271  -5.78584   0.03867  -3.63050   0.20410  -4.56084   0.09845  -5.81368   0.10247  -5.91202   0.03438  -3.64908   0.32838  -1.66028   0.10194  -5.74225   0.03824  -3.61981   0.33023  -1.65275   0.21760  -4.45928   0.10578  -5.89847   0.03909  -3.74450   0.20210  -4.53699   0.10241  -5.94023   0.09850  -5.78320   0.03438  -3.65942  -0.02639  -1.32908
-12.67112   0.12317  -3.88408   0.00650  -0.68518   0.00745  -0.75809  -0.20252  -4.40719  -0.20236  -4.40834   0.37655  -1.62227   0.25562  -4.49406   0.12034  -5.84865   0.05281  -3.74232   0.37913  -1.65259   0.11733  -5.77996   0.05197  -3.62790   0.24200  -4.54872   0.11321  -5.80801   0.11737  -5.90614   0.04880  -3.64664   0.37662  -1.64142   0.11654  -5.73642   0.05222  -3.61719   0.37875  -1.63378   0.25514  -4.44650   0.12055  -5.89243   0.05252  -3.74187   0.24043  -4.52495   0.11746  -5.93435   0.11310  -5.77753   0.04881  -3.65698  -0.03075  -1.33062
-12.62104   0.14185  -3.87697   0.00838  -0.68476   0.00947  -0.75761  -0.21944  -4.41818  -0.21933  -4.41932   0.42015  -1.60123   0.29399  -4.47934   0.13486  -5.84190   0.06908  -3.73886   0.42304  -1.63140   0.13166  -5.77336   0.06730  -3.62453   0.27984  -4.53470   0.12753  -5.80163   0.13197  -5.89953   0.06519  -3.64338   0.42022  -1.62038   0.13088  -5.72986   0.06823  -3.61378   0.42261  -1.61262   0.29309  -4.43182   0.13510  -5.88566   0.06803  -3.73846   0.27874  -4.51099   0.13222  -5.92773   0.12727  -5.77116   0.06520  -3.65371  -0.03532  -1.33239
-12.57095   0.15974  -3.86897   0.01058  -0.68423   0.01182  -0.75702  -0.23500  -4.42995  -0.23495  -4.43109   0.45786  -1.57830   0.33121  -4.46275   0.14920  -5.83443   0.08650  -3.73453   0.46103  -1.60831   0.14572  -5.76607   0.08390  -3.62032   0.31608  -4.51887   0.14143  -5.79454   0.14628  -5.89220   0.08262  -3.63924   0.45794  -1.59744   0.14495  -5.72260   0.08535  -3.60950   0.46054  -1.58955   0.32985  -4.41530   0.14944  -5.87818   0.08484  -3.73422   0.31541  -4.49519   0.14668  -5.92038   0.14103  -5.76410   0.08264  -3.64957  -0.04006  -1.33439